LAMMPS Description

960 atoms
960 ellipsoids
0 bonds
0 angles
0 dihedrals
0 impropers

1 atom types

0 52.2282 xlo xhi
0 52.2282 ylo yhi
0 52.2282 zlo zhi

Atoms

1 1 1 4.04253 1.17104 8.78639 3.9681
2 1 1 4.04253 50.2644 41.1911 40.612
3 1 1 4.04253 1.55035 16.6511 35.9028
4 1 1 4.04253 46.7624 3.46345 9.06354
5 1 1 4.04253 5.03799 2.02845 4.57927
6 1 1 4.04253 11.0971 42.8838 14.3678
7 1 1 4.04253 47.1314 52.027 18.71
8 1 1 4.04253 5.264 46.9912 21.9516
9 1 1 4.04253 43.4417 46.7249 17.5279
10 1 1 4.04253 51.7399 46.9262 17.8023
11 1 1 4.04253 13.0007 3.77762 43.7724
12 1 1 4.04253 51.3846 43.6222 34.5909
13 1 1 4.04253 3.11388 43.8929 40.0852
14 1 1 4.04253 8.34236 42.6132 38.9212
15 1 1 4.04253 51.8044 6.77722 51.2311
16 1 1 4.04253 48.0525 9.61819 2.13172
17 1 1 4.04253 8.719 1.68062 51.6591
18 1 1 4.04253 1.80694 11.8799 13.7253
19 1 1 4.04253 0.20058 0.528519 15.102
20 1 1 4.04253 0.527544 4.18096 9.00924
21 1 1 4.04253 1.39279 9.14375 18.707
22 1 1 4.04253 4.74404 15.1585 17.1644
23 1 1 4.04253 5.78226 20.2821 28.2095
24 1 1 4.04253 7.15232 1.79083 23.3819
25 1 1 4.04253 11.808 4.51636 32.7794
26 1 1 4.04253 10.8494 49.5567 21.9892
27 1 1 4.04253 16.7115 3.6281 36.8989
28 1 1 4.04253 8.27833 15.1937 37.7889
29 1 1 4.04253 10.902 23.6851 39.6754
30 1 1 4.04253 50.6753 8.34983 9.4413
31 1 1 4.04253 0.948783 10.6076 46.2358
32 1 1 4.04253 41.1033 22.7759 49.024
33 1 1 4.04253 37.3414 28.2206 9.38391
34 1 1 4.04253 52.0258 13.8042 20.089
35 1 1 4.04253 48.0079 18.6448 3.45541
36 1 1 4.04253 48.6502 22.181 24.3778
37 1 1 4.04253 44.1799 18.2669 24.3369
38 1 1 4.04253 3.31536 14.4386 30.6899
39 1 1 4.04253 50.9506 16.6855 31.501
40 1 1 4.04253 13.1413 1.64512 27.5592
41 1 1 4.04253 5.44258 7.67684 31.0147
42 1 1 4.04253 10.4356 4.94848 38.3974
43 1 1 4.04253 11.2726 17.9695 51.7774
44 1 1 4.04253 3.65234 13.303 48.2239
45 1 1 4.04253 10.8357 0.619565 46.9728
46 1 1 4.04253 0.0519121 18.6834 7.05202
47 1 1 4.04253 14.5346 23.0514 15.5069
48 1 1 4.04253 48.1197 11.8705 15.997
49 1 1 4.04253 46.7592 28.0745 25.5233
50 1 1 4.04253 45.7203 20.2594 13.3373
51 1 1 4.04253 14.9945 17.9633 23.4537
52 1 1 4.04253 11.3555 27.4986 23.3062
53 1 1 4.04253 42.54 25.5852 26.6771
54 1 1 4.04253 49.944 15.2503 26.9801
55 1 1 4.04253 49.3087 27.6508 37.878
56 1 1 4.04253 15.87 19.9605 32.2853
57 1 1 4.04253 8.21027 21.5014 47.5108
58 1 1 4.04253 4.8397 12.1581 2.9117
59 1 1 4.04253 51.3417 13.2302 51.8566
60 1 1 4.04253 10.3266 23.8101 51.8928
61 1 1 4.04253 3.85403 16.918 10.5316
62 1 1 4.04253 3.04786 37.9255 42.8168
63 1 1 4.04253 51.572 16.3255 14.6142
64 1 1 4.04253 4.2503 32.6151 13.3601
65 1 1 4.04253 46.0605 11.8123 27.2585
66 1 1 4.04253 7.90248 24.1947 34.0258
67 1 1 4.04253 0.0896969 27.0361 26.5996
68 1 1 4.04253 35.5576 25.5707 23.481
69 1 1 4.04253 13.4945 23.9634 34.9058
70 1 1 4.04253 4.2014 10.6524 36.6654
71 1 1 4.04253 9.11061 31.4056 36.2685
72 1 1 4.04253 6.00839 25.2256 28.429
73 1 1 4.04253 47.7966 18.9791 49.7645
74 1 1 4.04253 2.20409 22.7971 0.772201
75 1 1 4.04253 5.57808 19.4558 14.5803
76 1 1 4.04253 6.77156 42.1718 44.7128
77 1 1 4.04253 7.77034 44.3365 4.60189
78 1 1 4.04253 2.29024 37.8697 7.10876
79 1 1 4.04253 4.62553 29.0245 8.90412
80 1 1 4.04253 12.1114 31.6442 28.0881
81 1 1 4.04253 20.6908 28.1845 11.4885
82 1 1 4.04253 50.9986 25.2811 21.2033
83 1 1 4.04253 1.8186 21.375 24.7267
84 1 1 4.04253 7.90065 33.5917 28.5611
85 1 1 4.04253 48.3111 26.9137 29.9749
86 1 1 4.04253 45.941 25.3018 40.4275
87 1 1 4.04253 5.83741 27.5503 37.1982
88 1 1 4.04253 13.6586 30.3695 33.8647
89 1 1 4.04253 5.56045 26.5093 45.8825
90 1 1 4.04253 14.7118 38.3951 42.1957
91 1 1 4.04253 2.97789 32.346 33.6123
92 1 1 4.04253 14.5596 0.00880099 39.8966
93 1 1 4.04253 6.81328 38.1239 4.05697
94 1 1 4.04253 3.1629 49.3526 12.2523
95 1 1 4.04253 50.7928 44.8473 8.50715
96 1 1 4.04253 4.89943 38.6231 15.2757
97 1 1 4.04253 12.3733 34.1222 9.76588
98 1 1 4.04253 50.5262 42.6613 28.7793
99 1 1 4.04253 4.26701 36.6842 31.9749
100 1 1 4.04253 43.2564 34.4111 26.1133
101 1 1 4.04253 3.5389 51.2918 39.3434
102 1 1 4.04253 45.1535 47.178 41.6063
103 1 1 4.04253 11.3095 43.3496 43.4868
104 1 1 4.04253 46.0485 35.0888 34.0581
105 1 1 4.04253 0.796376 31.629 38.9352
106 1 1 4.04253 46.3771 48.6414 46.3967
107 1 1 4.04253 3.61916 47.2104 43.7449
108 1 1 4.04253 5.22747 1.5864 11.9687
109 1 1 4.04253 2.83785 51.2164 52.2263
110 1 1 4.04253 8.06366 43.1336 17.8091
111 1 1 4.04253 2.7631 13.227 7.4336
112 1 1 4.04253 8.10185 47.9266 17.9224
113 1 1 4.04253 48.9789 52.2091 23.5853
114 1 1 4.04253 52.1881 43.3802 23.0323
115 1 1 4.04253 13.0689 49.3031 29.9362
116 1 1 4.04253 9.11217 40.1854 33.9069
117 1 1 4.04253 0.250304 31.5857 28.4699
118 1 1 4.04253 5.14374 0.136801 47.8035
119 1 1 4.04253 2.94223 41.6908 31.8211
120 1 1 4.04253 47.1553 34.8905 43.9862
121 1 1 4.04253 25.8297 6.44449 2.29814
122 1 1 4.04253 0.892549 0.0261518 43.7355
123 1 1 4.04253 52.1614 40.7009 12.7486
124 1 1 4.04253 4.67422 44.9728 13.2142
125 1 1 4.04253 7.70403 5.40215 13.5502
126 1 1 4.04253 6.32632 9.56002 15.7744
127 1 1 4.04253 16.1773 39.8949 14.4844
128 1 1 4.04253 10.4854 46.155 35.093
129 1 1 4.04253 20.2185 4.67536 16.3767
130 1 1 4.04253 11.5011 0.484874 35.0009
131 1 1 4.04253 15.7124 46.9088 25.0652
132 1 1 4.04253 17.5549 0.734104 44.3291
133 1 1 4.04253 16.2467 42.5682 44.2089
134 1 1 4.04253 3.5267 4.18075 51.56
135 1 1 4.04253 19.5695 5.8161 0.358401
136 1 1 4.04253 11.9656 50.1889 51.5716
137 1 1 4.04253 2.56874 49.5097 4.60508
138 1 1 4.04253 7.4501 14.5655 12.7255
139 1 1 4.04253 9.04168 2.8734 9.00914
140 1 1 4.04253 16.3967 6.05754 23.26
141 1 1 4.04253 49.4552 17.8556 22.4102
142 1 1 4.04253 50.4501 10.8889 23.2025
143 1 1 4.04253 3.53857 4.23104 18.0659
144 1 1 4.04253 10.1181 9.10365 23.1869
145 1 1 4.04253 8.91759 5.37102 26.5142
146 1 1 4.04253 11.2813 7.17356 0.648401
147 1 1 4.04253 6.10631 21.7246 42.6506
148 1 1 4.04253 6.62551 0.0262975 43.3506
149 1 1 4.04253 9.59538 15.874 4.0439
150 1 1 4.04253 6.89267 11.1531 43.8838
151 1 1 4.04253 23.9513 24.2235 10.7588
152 1 1 4.04253 18.1851 8.26482 8.48951
153 1 1 4.04253 5.00346 8.93303 9.33596
154 1 1 4.04253 6.58931 16.9157 44.0703
155 1 1 4.04253 15.0867 18.7601 3.24051
156 1 1 4.04253 25.1295 18.4945 14.0677
157 1 1 4.04253 3.26141 20.7455 32.7722
158 1 1 4.04253 10.1719 22.9166 24.7861
159 1 1 4.04253 20.0198 21.1091 14.9126
160 1 1 4.04253 40.0309 13.3977 35.5345
161 1 1 4.04253 7.5587 1.97034 30.2319
162 1 1 4.04253 5.88004 17.9372 51.6229
163 1 1 4.04253 12.4855 28.5373 39.1095
164 1 1 4.04253 15.5012 19.2283 49.1435
165 1 1 4.04253 12.2217 9.48129 46.0163
166 1 1 4.04253 13.4452 28.911 7.71842
167 1 1 4.04253 5.16092 8.50541 50.5787
168 1 1 4.04253 13.0659 23.5051 6.04171
169 1 1 4.04253 2.36665 13.993 25.3863
170 1 1 4.04253 50.9889 22.3921 28.9621
171 1 1 4.04253 16.1805 12.8255 14.6332
172 1 1 4.04253 6.63724 11.3048 27.5304
173 1 1 4.04253 1.96888 18.8123 19.4762
174 1 1 4.04253 8.40908 16.2871 32.1565
175 1 1 4.04253 8.35589 0.209608 37.2749
176 1 1 4.04253 5.37345 21.8135 37.2936
177 1 1 4.04253 24.446 27.3099 34.3043
178 1 1 4.04253 14.9834 20.982 39.9499
179 1 1 4.04253 20.7489 20.671 51.9966
180 1 1 4.04253 9.07721 12.498 50.1497
181 1 1 4.04253 8.58703 37.7162 42.9554
182 1 1 4.04253 46.5422 17.3226 8.91159
183 1 1 4.04253 6.13014 23.0767 21.8474
184 1 1 4.04253 2.74708 23.4794 16.8113
185 1 1 4.04253 5.58661 29.6887 25.7376
186 1 1 4.04253 20.8652 33.5892 13.6773
187 1 1 4.04253 15.6159 24.1954 22.1886
188 1 1 4.04253 17.8092 27.0136 32.3432
189 1 1 4.04253 19.2895 21.2288 20.237
190 1 1 4.04253 11.8811 18.5076 36.3101
191 1 1 4.04253 16.9446 37.6922 36.7735
192 1 1 4.04253 11.5922 36.3783 31.7863
193 1 1 4.04253 20.8491 31.6207 36.4802
194 1 1 4.04253 3.01453 25.6404 41.3112
195 1 1 4.04253 51.4788 21.9991 44.404
196 1 1 4.04253 51.74 35.905 36.3766
197 1 1 4.04253 11.9504 39.2513 5.17372
198 1 1 4.04253 20.0447 35.6401 3.92092
199 1 1 4.04253 26.0946 30.8151 14.7281
200 1 1 4.04253 7.98289 33.476 16.8466
201 1 1 4.04253 17.6337 31.7956 31.8017
202 1 1 4.04253 11.384 26.9317 29.5948
203 1 1 4.04253 19.1296 40.7209 21.2685
204 1 1 4.04253 16.3174 29.0983 26.954
205 1 1 4.04253 0.105259 27.7943 35.8713
206 1 1 4.04253 13.0678 36.8883 27.1181
207 1 1 4.04253 3.53742 26.2137 49.7127
208 1 1 4.04253 25.3837 40.3317 44.1664
209 1 1 4.04253 7.86952 32.3297 41.155
210 1 1 4.04253 11.0705 39.04 52.2144
211 1 1 4.04253 16.8275 35.1575 0.114351
212 1 1 4.04253 14.4829 40.0755 9.88833
213 1 1 4.04253 12.3547 28.2984 18.1315
214 1 1 4.04253 20.5502 42.4568 16.0604
215 1 1 4.04253 9.93942 38.5838 17.0239
216 1 1 4.04253 8.37395 39.0384 27.7634
217 1 1 4.04253 16.4117 0.085201 23.8158
218 1 1 4.04253 46.7653 41.9121 13.5737
219 1 1 4.04253 6.72573 41.26 21.7545
220 1 1 4.04253 15.6106 40.1696 24.4312
221 1 1 4.04253 16.3866 33.2215 39.4965
222 1 1 4.04253 25.3027 38.2886 37.426
223 1 1 4.04253 6.93091 29.4664 31.8933
224 1 1 4.04253 2.50709 38.7221 47.7809
225 1 1 4.04253 13.7305 46.2644 48.0635
226 1 1 4.04253 2.88631 45.0906 48.966
227 1 1 4.04253 8.86914 49.137 13.3758
228 1 1 4.04253 8.04331 41.0432 9.73437
229 1 1 4.04253 4.90349 36.2628 19.9575
230 1 1 4.04253 3.81366 51.6723 18.3718
231 1 1 4.04253 11.0535 38.9873 23.0654
232 1 1 4.04253 50.2394 39.8802 18.2505
233 1 1 4.04253 21.304 33.0931 20.0835
234 1 1 4.04253 20.7697 52.0991 35.3017
235 1 1 4.04253 3.15375 45.3621 27.2667
236 1 1 4.04253 22.3675 44.3535 43.3942
237 1 1 4.04253 7.33123 44.2116 30.1998
238 1 1 4.04253 15.6905 37.5536 47.1634
239 1 1 4.04253 0.131418 3.1569 4.2054
240 1 1 4.04253 11.9136 49.4322 43.7112
241 1 1 4.04253 16.7289 5.66363 4.15104
242 1 1 4.04253 21.8286 0.847741 1.40667
243 1 1 4.04253 28.8215 47.2735 4.71886
244 1 1 4.04253 32.8772 49.77 49.1935
245 1 1 4.04253 10.0078 18.9021 7.85117
246 1 1 4.04253 14.9254 8.20602 18.255
247 1 1 4.04253 15.1865 11.8946 21.7525
248 1 1 4.04253 26.0592 48.1544 23.1621
249 1 1 4.04253 18.624 20.4633 26.2245
250 1 1 4.04253 14.9849 6.43646 28.1189
251 1 1 4.04253 18.8684 15.7435 28.7506
252 1 1 4.04253 14.1542 7.43888 40.8233
253 1 1 4.04253 12.4795 43.6494 28.6683
254 1 1 4.04253 24.8317 11.7518 44.145
255 1 1 4.04253 16.7616 50.2145 48.2533
256 1 1 4.04253 29.7379 6.2846 52.0044
257 1 1 4.04253 23.3412 15.233 2.14547
258 1 1 4.04253 8.60524 1.05671 17.6083
259 1 1 4.04253 11.1368 10.8651 14.2123
260 1 1 4.04253 12.9892 9.07905 10.37
261 1 1 4.04253 49.6765 5.73743 20.3599
262 1 1 4.04253 15.277 14.6531 8.48415
263 1 1 4.04253 6.00785 11.6881 21.5422
264 1 1 4.04253 30.4205 14.8134 23.3501
265 1 1 4.04253 13.8004 13.5748 31.5397
266 1 1 4.04253 12.8149 12.0503 36.7522
267 1 1 4.04253 16.2022 49.3614 35.2554
268 1 1 4.04253 16.7985 11.1312 46.2873
269 1 1 4.04253 8.74857 5.70681 47.0145
270 1 1 4.04253 11.3744 4.85616 5.5711
271 1 1 4.04253 12.7405 10.31 4.24759
272 1 1 4.04253 23.276 11.4346 7.12609
273 1 1 4.04253 11.2027 16.1129 46.1531
274 1 1 4.04253 18.7976 17.187 12.796
275 1 1 4.04253 12.0921 34.7992 48.6533
276 1 1 4.04253 28.7329 21.2006 16.1544
277 1 1 4.04253 12.505 18.1345 28.0656
278 1 1 4.04253 10.8288 21.3783 31.0057
279 1 1 4.04253 10.6126 14.1959 18.5205
280 1 1 4.04253 9.803 14.5079 24.3208
281 1 1 4.04253 15.5368 23.5143 27.6956
282 1 1 4.04253 11.5741 12.3516 41.8413
283 1 1 4.04253 21.095 18.6073 33.0818
284 1 1 4.04253 13.7843 11.441 50.6657
285 1 1 4.04253 16.2059 16.9372 43.9979
286 1 1 4.04253 19.9029 15.1855 49.5555
287 1 1 4.04253 4.99179 27.0448 3.72229
288 1 1 4.04253 6.85386 6.74502 3.777
289 1 1 4.04253 16.0154 20.2419 9.47606
290 1 1 4.04253 10.1489 12.4655 8.21822
291 1 1 4.04253 28.2495 19.9278 10.0801
292 1 1 4.04253 23.7719 21.3412 24.7059
293 1 1 4.04253 26.2785 29.8546 20.1465
294 1 1 4.04253 5.342 17.6124 22.6207
295 1 1 4.04253 9.04378 9.92032 35.1796
296 1 1 4.04253 25.6514 30.1406 40.4462
297 1 1 4.04253 4.26094 3.50885 39.6907
298 1 1 4.04253 23.6701 26.9822 44.2306
299 1 1 4.04253 14.1747 29.8734 13.6212
300 1 1 4.04253 16.1993 15.5774 0.916001
301 1 1 4.04253 8.79282 29.2612 6.00991
302 1 1 4.04253 6.51089 23.6522 8.32423
303 1 1 4.04253 1.2833 24.7681 6.62242
304 1 1 4.04253 8.55287 24.762 16.1796
305 1 1 4.04253 0.324618 35.5434 23.2906
306 1 1 4.04253 25.9977 19.7116 4.46136
307 1 1 4.04253 10.0436 19.0948 16.6906
308 1 1 4.04253 17.1607 32.4831 17.2316
309 1 1 4.04253 25.0935 26.6947 29.7701
310 1 1 4.04253 5.93404 36.2282 37.7691
311 1 1 4.04253 26.4995 30.7204 25.6438
312 1 1 4.04253 49.1613 31.5513 33.8554
313 1 1 4.04253 29.0493 37.749 41.8292
314 1 1 4.04253 21.0151 39.7954 51.4426
315 1 1 4.04253 16.1602 24.137 48.4332
316 1 1 4.04253 7.00096 36.7058 49.2694
317 1 1 4.04253 4.57536 32.5203 4.13441
318 1 1 4.04253 12.6602 28.6158 48.9539
319 1 1 4.04253 25.2086 33.628 5.15441
320 1 1 4.04253 5.92083 28.6094 20.0823
321 1 1 4.04253 13.0803 34.7427 15.4218
322 1 1 4.04253 24.4924 33.8064 11.1545
323 1 1 4.04253 19.2535 30.3698 23.6253
324 1 1 4.04253 13.7926 41.7831 37.9115
325 1 1 4.04253 2.84831 40.3769 36.5026
326 1 1 4.04253 16.7782 34.0573 25.4314
327 1 1 4.04253 17.3025 26.2334 38.4191
328 1 1 4.04253 17.0977 35.8382 32.6032
329 1 1 4.04253 7.69684 31.1062 47.5768
330 1 1 4.04253 11.1927 27.9387 1.79
331 1 1 4.04253 20.4865 0.689301 48.9848
332 1 1 4.04253 14.4657 51.292 4.6951
333 1 1 4.04253 25.1955 46.7248 0.833987
334 1 1 4.04253 14.0694 42.4444 19.6351
335 1 1 4.04253 9.41245 37.0006 12.1479
336 1 1 4.04253 13.2741 49.6626 18.0921
337 1 1 4.04253 27.9957 35.012 18.147
338 1 1 4.04253 17.2381 46.6748 20.2227
339 1 1 4.04253 19.2174 42.681 37.91
340 1 1 4.04253 26.6283 39.6219 18.0045
341 1 1 4.04253 16.8791 32.4891 47.2377
342 1 1 4.04253 38.5153 42.7539 37.6771
343 1 1 4.04253 11.8555 35.4721 38.5616
344 1 1 4.04253 26.7882 0.470901 5.2332
345 1 1 4.04253 14.1147 46.2404 39.9492
346 1 1 4.04253 11.2212 44.6333 0.0409414
347 1 1 4.04253 23.6873 48.8981 49.0035
348 1 1 4.04253 9.6659 52.217 3.98378
349 1 1 4.04253 9.82637 7.2584 17.9432
350 1 1 4.04253 12.9852 48.7454 11.0673
351 1 1 4.04253 13.0469 2.949 15.3429
352 1 1 4.04253 20.323 4.2051 23.1273
353 1 1 4.04253 16.7164 2.4542 19.3814
354 1 1 4.04253 24.0898 2.8472 31.3514
355 1 1 4.04253 13.828 12.6005 26.2973
356 1 1 4.04253 14.8799 40.6833 31.3166
357 1 1 4.04253 0.737704 42.7245 45.1874
358 1 1 4.04253 20.6537 38.291 45.1392
359 1 1 4.04253 7.42194 47.9195 40.3615
360 1 1 4.04253 25.8081 3.8714 49.5829
361 1 1 4.04253 26.0035 42.9286 8.98055
362 1 1 4.04253 23.5543 4.64824 6.25037
363 1 1 4.04253 24.3362 8.13725 10.2797
364 1 1 4.04253 16.7607 0.0954481 13.9292
365 1 1 4.04253 6.61276 48.221 1.21015
366 1 1 4.04253 33.4855 21.9224 14.8862
367 1 1 4.04253 21.2548 51.1932 25.5976
368 1 1 4.04253 25.1817 7.56916 20.1873
369 1 1 4.04253 20.4932 1.92371 40.3825
370 1 1 4.04253 15.3554 8.5191 34.8367
371 1 1 4.04253 21.446 4.78512 46.8739
372 1 1 4.04253 19.6802 8.94161 36.6847
373 1 1 4.04253 17.5978 15.7766 35.1453
374 1 1 4.04253 28.5832 5.09752 28.2673
375 1 1 4.04253 23.3796 11.0927 49.1056
376 1 1 4.04253 34.3932 49.1569 1.31434
377 1 1 4.04253 20.5184 14.3167 44.6898
378 1 1 4.04253 34.183 2.85421 51.8494
379 1 1 4.04253 14.835 2.3486 0.368897
380 1 1 4.04253 20.7917 12.8878 11.325
381 1 1 4.04253 19.7684 10.8122 19.7185
382 1 1 4.04253 25.1245 3.85404 17.4045
383 1 1 4.04253 20.9412 51.5492 19.4448
384 1 1 4.04253 21.3038 25.8995 24.0677
385 1 1 4.04253 27.545 24.0759 38.3665
386 1 1 4.04253 25.4538 21.6902 33.0425
387 1 1 4.04253 18.8859 9.9308 31.3665
388 1 1 4.04253 20.2669 10.825 1.5337
389 1 1 4.04253 24.86 17.7573 41.9399
390 1 1 4.04253 28.8293 13.5081 51.2625
391 1 1 4.04253 32.015 8.81741 47.7958
392 1 1 4.04253 24.7057 16.7229 47.539
393 1 1 4.04253 21.1235 24.5546 48.5143
394 1 1 4.04253 30.7762 22.1556 3.61466
395 1 1 4.04253 7.68905 22.0501 3.23704
396 1 1 4.04253 24.4445 15.0291 24.6374
397 1 1 4.04253 20.3295 22.3868 6.68834
398 1 1 4.04253 21.7228 22.6205 29.2047
399 1 1 4.04253 20.353 19.2699 39.4449
400 1 1 4.04253 19.6309 16.3875 22.3123
401 1 1 4.04253 19.536 22.8708 34.9523
402 1 1 4.04253 10.0684 18.4058 40.9579
403 1 1 4.04253 27.9302 35.7832 33.0511
404 1 1 4.04253 21.8558 13.8512 39.1289
405 1 1 4.04253 35.8074 19.8205 0.892701
406 1 1 4.04253 32.7956 25.0331 51.9755
407 1 1 4.04253 31.6081 29.8521 11.868
408 1 1 4.04253 25.6668 24.1414 5.46334
409 1 1 4.04253 34.1313 36.952 19.6237
410 1 1 4.04253 26.1103 21.8002 51.0083
411 1 1 4.04253 12.5375 16.7609 12.7038
412 1 1 4.04253 28.2908 26.5081 15.4693
413 1 1 4.04253 22.4677 28.2878 16.4466
414 1 1 4.04253 26.6519 31.868 30.5378
415 1 1 4.04253 23.748 44.7677 38.8785
416 1 1 4.04253 31.363 22.8922 47.4647
417 1 1 4.04253 20.2058 29.7428 41.3833
418 1 1 4.04253 15.0721 28.6196 43.5314
419 1 1 4.04253 18.3657 27.2442 6.6558
420 1 1 4.04253 17.8796 10.7542 40.9296
421 1 1 4.04253 19.3491 28.5556 48.0099
422 1 1 4.04253 15.432 25.1039 10.6069
423 1 1 4.04253 51.9268 31.5466 2.34237
424 1 1 4.04253 31.1094 40.0027 10.6093
425 1 1 4.04253 29.1713 34.1987 8.67226
426 1 1 4.04253 11.3772 22.045 20.1448
427 1 1 4.04253 13.4882 33.1437 4.47841
428 1 1 4.04253 21.4961 31.1759 29.0528
429 1 1 4.04253 25.1873 39.6108 13.273
430 1 1 4.04253 27.7423 19.2806 22.2546
431 1 1 4.04253 25.517 17.5666 28.8782
432 1 1 4.04253 31.2405 42.6511 43.7466
433 1 1 4.04253 21.6799 32.8679 44.9368
434 1 1 4.04253 32.8818 33.1085 43.7293
435 1 1 4.04253 27.1644 28.1377 1.9939
436 1 1 4.04253 20.9124 43.1056 4.85193
437 1 1 4.04253 19.5265 42.828 10.517
438 1 1 4.04253 10.0269 26.8059 44.0178
439 1 1 4.04253 24.5307 38.5625 8.65539
440 1 1 4.04253 18.3294 26.4745 18.5016
441 1 1 4.04253 20.0866 37.7038 11.7256
442 1 1 4.04253 15.688 45.5846 14.8166
443 1 1 4.04253 27.7859 33.2156 0.933445
444 1 1 4.04253 15.3872 36.4891 19.8116
445 1 1 4.04253 12.7931 32.0765 21.3645
446 1 1 4.04253 25.3869 42.0459 22.2539
447 1 1 4.04253 19.6651 43.9971 48.1076
448 1 1 4.04253 29.3892 39.7787 48.76
449 1 1 4.04253 15.331 23.9672 1.9014
450 1 1 4.04253 16.2692 40.529 4.9962
451 1 1 4.04253 23.9376 47.8904 6.84687
452 1 1 4.04253 24.1839 46.0668 12.4341
453 1 1 4.04253 24.4978 23.3502 18.5872
454 1 1 4.04253 20.1549 49.9136 9.93889
455 1 1 4.04253 21.7028 3.9424 11.5665
456 1 1 4.04253 21.8069 38.2245 17.751
457 1 1 4.04253 7.27423 49.5881 8.3809
458 1 1 4.04253 25.5501 46.6422 18.1256
459 1 1 4.04253 19.7371 44.1867 26.9995
460 1 1 4.04253 26.435 46.7104 33.9673
461 1 1 4.04253 19.9248 41.1785 32.7617
462 1 1 4.04253 28.224 45.3542 47.1261
463 1 1 4.04253 12.3139 33.0084 43.1161
464 1 1 4.04253 16.5321 45.6087 1.2565
465 1 1 4.04253 35.0088 39.1024 0.254901
466 1 1 4.04253 20.5392 0.595001 6.54506
467 1 1 4.04253 19.9835 48.5144 1.19241
468 1 1 4.04253 40.5827 49.5505 1.89697
469 1 1 4.04253 11.0543 44.8559 8.74732
470 1 1 4.04253 9.11269 29.4084 11.2198
471 1 1 4.04253 16.0107 5.7514 12.5668
472 1 1 4.04253 31.804 8.1404 26.1016
473 1 1 4.04253 34.3976 45.7706 24.7341
474 1 1 4.04253 20.8771 47.1348 22.0785
475 1 1 4.04253 20.7824 5.3311 32.9132
476 1 1 4.04253 20.1805 48.6121 39.5007
477 1 1 4.04253 25.9057 51.7419 37.579
478 1 1 4.04253 18.1244 47.5584 44.1853
479 1 1 4.04253 16.4783 41.1487 50.2816
480 1 1 4.04253 28.1831 50.2422 46.2432
481 1 1 4.04253 26.31 2.3174 43.313
482 1 1 4.04253 36.6022 9.45468 37.5358
483 1 1 4.04253 19.5953 17.2193 6.05755
484 1 1 4.04253 31.9854 1.76862 4.8082
485 1 1 4.04253 21.7857 9.40266 15.9308
486 1 1 4.04253 26.4465 12.8852 12.9056
487 1 1 4.04253 34.8252 51.0486 16.766
488 1 1 4.04253 31.136 6.37095 10.7097
489 1 1 4.04253 35.5101 12.4263 24.7207
490 1 1 4.04253 25.0569 11.0485 36.8484
491 1 1 4.04253 34.235 20.0976 38.3523
492 1 1 4.04253 34.8027 4.22702 39.1202
493 1 1 4.04253 15.1888 5.32341 48.7682
494 1 1 4.04253 26.8376 7.76597 46.0345
495 1 1 4.04253 36.1501 2.55405 8.2607
496 1 1 4.04253 26.1369 11.5643 3.39319
497 1 1 4.04253 25.5594 0.667277 9.85836
498 1 1 4.04253 28.7655 9.06246 15.724
499 1 1 4.04253 30.9595 0.357108 9.95341
500 1 1 4.04253 26.3869 9.51295 23.7125
501 1 1 4.04253 25.0531 2.70021 22.8947
502 1 1 4.04253 40.8541 10.7482 24.5006
503 1 1 4.04253 10.9758 9.23483 29.1749
504 1 1 4.04253 20.4761 11.8795 24.7999
505 1 1 4.04253 26.1842 11.6803 28.5
506 1 1 4.04253 18.344 24.8344 43.0089
507 1 1 4.04253 34.4277 12.0867 42.2354
508 1 1 4.04253 20.2847 20.06 44.8638
509 1 1 4.04253 27.5919 7.95315 41.2692
510 1 1 4.04253 29.1506 13.6817 45.3378
511 1 1 4.04253 43.3909 14.8407 45.1352
512 1 1 4.04253 26.968 26.0028 48.8367
513 1 1 4.04253 40.5365 5.58199 47.8194
514 1 1 4.04253 34.1907 16.6551 5.21085
515 1 1 4.04253 23.5308 16.7346 9.10436
516 1 1 4.04253 38.1451 0.388263 49.7009
517 1 1 4.04253 21.5135 25.331 1.65796
518 1 1 4.04253 34.9224 17.3503 20.2183
519 1 1 4.04253 29.769 25.9206 32.5949
520 1 1 4.04253 29.9573 30.3629 35.0108
521 1 1 4.04253 29.1426 22.5636 27.4288
522 1 1 4.04253 37.0614 7.09588 28.642
523 1 1 4.04253 19.2887 6.7748 43.6007
524 1 1 4.04253 29.807 18.8531 47.1486
525 1 1 4.04253 22.8596 24.9757 39.0989
526 1 1 4.04253 39.3806 23.6273 4.65022
527 1 1 4.04253 36.282 26.0487 14.0348
528 1 1 4.04253 46.3956 28.9151 12.3137
529 1 1 4.04253 31.2589 24.3904 10.6136
530 1 1 4.04253 34.0722 26.3505 4.17195
531 1 1 4.04253 35.0502 11.9347 12.4177
532 1 1 4.04253 25.02 17.4934 20.0411
533 1 1 4.04253 15.9299 17.8616 18.3748
534 1 1 4.04253 33.9702 39.7823 39.8185
535 1 1 4.04253 30.1595 42.6608 21.9825
536 1 1 4.04253 29.4537 33.4339 38.8331
537 1 1 4.04253 32.7224 27.2169 47.0782
538 1 1 4.04253 28.8246 27.6674 43.4995
539 1 1 4.04253 17.4539 29.7423 2.3669
540 1 1 4.04253 13.6725 21.7424 44.8903
541 1 1 4.04253 34.1367 13.6663 49.5096
542 1 1 4.04253 5.06468 18.528 4.97617
543 1 1 4.04253 22.4357 36.6269 40.4539
544 1 1 4.04253 35.0415 22.041 6.72946
545 1 1 4.04253 10.7338 22.7087 11.731
546 1 1 4.04253 38.2984 21.9115 18.0445
547 1 1 4.04253 33.4101 34.5485 23.8794
548 1 1 4.04253 30.1139 26.8894 21.7317
549 1 1 4.04253 36.4715 31.4224 21.0062
550 1 1 4.04253 22.6103 35.6098 23.2738
551 1 1 4.04253 38.8275 33.7446 44.1867
552 1 1 4.04253 29.9275 42.0447 36.4006
553 1 1 4.04253 31.9974 36.3667 35.9769
554 1 1 4.04253 24.5184 30.0763 50.8634
555 1 1 4.04253 17.0565 47.0069 6.8575
556 1 1 4.04253 30.6719 34.9223 3.40738
557 1 1 4.04253 30.8617 34.4263 13.6219
558 1 1 4.04253 22.1613 33.7897 50.7861
559 1 1 4.04253 37.362 26.8746 52.1092
560 1 1 4.04253 32.3418 29.2751 7.56249
561 1 1 4.04253 32.0593 39.5516 16.4418
562 1 1 4.04253 23.8495 46.7952 28.7741
563 1 1 4.04253 21.8571 29.6281 3.86792
564 1 1 4.04253 20.8338 47.3983 15.1684
565 1 1 4.04253 25.8676 36.6575 27.8152
566 1 1 4.04253 18.3339 32.8049 7.75116
567 1 1 4.04253 30.9945 34.9249 28.8896
568 1 1 4.04253 34.0167 0.093901 43.5602
569 1 1 4.04253 31.6236 35.8693 49.8847
570 1 1 4.04253 34.6453 45.0528 49.3432
571 1 1 4.04253 25.3446 42.2968 2.3642
572 1 1 4.04253 36.5036 34.6418 2.26692
573 1 1 4.04253 33.4717 50.1293 7.01282
574 1 1 4.04253 39.6229 31.1938 0.224906
575 1 1 4.04253 25.851 38.2243 1.30964
576 1 1 4.04253 11.3126 2.845 21.6099
577 1 1 4.04253 45.5602 42.324 21.5861
578 1 1 4.04253 18.4586 49.515 29.8736
579 1 1 4.04253 15.1122 44.8555 33.3889
580 1 1 4.04253 40.5055 51.5285 25.0197
581 1 1 4.04253 27.9107 45.9644 41.9175
582 1 1 4.04253 29.388 46.7702 27.922
583 1 1 4.04253 25.1471 43.2016 48.8573
584 1 1 4.04253 33.1069 47.3674 44.9691
585 1 1 4.04253 43.7962 44.2037 47.7616
586 1 1 4.04253 14.4789 1.9817 9.24045
587 1 1 4.04253 37.7275 46.0714 16.6029
588 1 1 4.04253 28.7225 49.8145 14.8289
589 1 1 4.04253 28.5951 47.1847 9.83349
590 1 1 4.04253 29.5806 51.8475 19.3851
591 1 1 4.04253 28.3206 3.7885 13.1496
592 1 1 4.04253 44.7425 43.7917 27.8259
593 1 1 4.04253 20.8858 38.8763 28.0355
594 1 1 4.04253 26.8495 51.5096 26.9308
595 1 1 4.04253 21.1908 45.9595 34.4946
596 1 1 4.04253 23.7681 50.3201 43.5135
597 1 1 4.04253 31.7121 2.7282 32.7631
598 1 1 4.04253 30.6668 7.9618 31.9049
599 1 1 4.04253 44.7756 0.072601 4.4679
600 1 1 4.04253 39.0124 5.4098 41.5904
601 1 1 4.04253 38.5723 47.7396 42.9506
602 1 1 4.04253 40.5635 51.6493 44.9808
603 1 1 4.04253 35.3721 3.64478 46.4589
604 1 1 4.04253 35.0208 6.8211 4.63392
605 1 1 4.04253 39.9338 7.888 4.22109
606 1 1 4.04253 31.8088 3.23033 17.7066
607 1 1 4.04253 30.6342 3.95519 22.9263
608 1 1 4.04253 22.8468 7.02721 27.6548
609 1 1 4.04253 34.7979 2.74539 27.3574
610 1 1 4.04253 24.4932 7.99401 32.6785
611 1 1 4.04253 44.7589 13.8521 31.6154
612 1 1 4.04253 38.4424 12.3656 30.1984
613 1 1 4.04253 18.959 2.48783 29.2964
614 1 1 4.04253 29.881 44.9372 0.465401
615 1 1 4.04253 41.9362 3.40963 1.2535
616 1 1 4.04253 40.209 12.9979 42.2763
617 1 1 4.04253 28.6318 14.1513 39.4338
618 1 1 4.04253 44.3162 8.03009 11.2127
619 1 1 4.04253 42.3244 12.3121 8.00958
620 1 1 4.04253 27.8967 15.5368 4.78065
621 1 1 4.04253 26.5275 13.6451 18.524
622 1 1 4.04253 32.2068 9.93252 20.8136
623 1 1 4.04253 34.119 9.25542 16.932
624 1 1 4.04253 26.4928 4.72303 37.0566
625 1 1 4.04253 30.5289 21.8706 41.4729
626 1 1 4.04253 41.8891 44.8883 52.0282
627 1 1 4.04253 34.4715 14.3188 36.7412
628 1 1 4.04253 31.9533 7.05955 42.445
629 1 1 4.04253 42.6511 4.28272 42.0894
630 1 1 4.04253 39.5569 8.44313 14.0017
631 1 1 4.04253 34.8333 16.4344 46.3087
632 1 1 4.04253 47.4016 30.2098 47.7464
633 1 1 4.04253 38.12 22.5213 33.0581
634 1 1 4.04253 39.4987 35.6978 8.97196
635 1 1 4.04253 38.3089 13.2841 1.85223
636 1 1 4.04253 30.8616 14.653 16.3403
637 1 1 4.04253 32.8429 19.197 10.1294
638 1 1 4.04253 21.4606 15.7541 16.7565
639 1 1 4.04253 29.4719 14.3735 33.6402
640 1 1 4.04253 40.556 3.05522 30.5946
641 1 1 4.04253 35.0322 10.82 32.7616
642 1 1 4.04253 25.5597 22.174 44.0626
643 1 1 4.04253 45.6987 13.4255 37.6214
644 1 1 4.04253 30.8727 9.26324 36.8102
645 1 1 4.04253 44.9632 14.1614 3.8976
646 1 1 4.04253 34.5813 38.4595 45.9471
647 1 1 4.04253 41.998 26.9589 49.566
648 1 1 4.04253 35.6503 32.5164 48.5537
649 1 1 4.04253 39.8243 28.0492 18.1913
650 1 1 4.04253 31.5285 31.1458 18.3426
651 1 1 4.04253 34.0789 26.2087 18.1577
652 1 1 4.04253 42.0098 38.9254 13.282
653 1 1 4.04253 30.4167 10.3823 8.02848
654 1 1 4.04253 43.0901 21.9578 17.13
655 1 1 4.04253 32.0958 13.449 29.1602
656 1 1 4.04253 22.1221 13.7069 32.4887
657 1 1 4.04253 25.6071 17.526 36.6385
658 1 1 4.04253 26.8515 33.6828 43.881
659 1 1 4.04253 30.0622 30.5709 48.9402
660 1 1 4.04253 35.3389 17.042 33.4143
661 1 1 4.04253 36.8711 22.3213 46.9934
662 1 1 4.04253 39.3764 36.3248 49.1612
663 1 1 4.04253 43.009 26.1808 8.00631
664 1 1 4.04253 49.814 31.8085 12.6674
665 1 1 4.04253 26.7472 27.8734 8.63345
666 1 1 4.04253 44.4098 26.7655 20.8072
667 1 1 4.04253 35.2583 30.7431 33.3687
668 1 1 4.04253 41.9719 38.4354 36.9849
669 1 1 4.04253 34.0798 25.1967 28.4849
670 1 1 4.04253 36.1261 47.6161 34.8157
671 1 1 4.04253 33.728 45.7641 39.7544
672 1 1 4.04253 31.6364 27.5282 40.431
673 1 1 4.04253 43.0358 37.387 44.6557
674 1 1 4.04253 26.5177 35.4494 48.1061
675 1 1 4.04253 43.5069 27.0615 3.1979
676 1 1 4.04253 43.3408 31.6794 8.497
677 1 1 4.04253 33.8174 30.3004 1.80293
678 1 1 4.04253 47.0496 24.0788 51.2354
679 1 1 4.04253 48.9389 37.9771 47.6782
680 1 1 4.04253 48.0743 34.4727 0.33218
681 1 1 4.04253 32.2197 44.3132 7.80968
682 1 1 4.04253 35.5463 42.1806 13.4885
683 1 1 4.04253 42.4171 32.3573 21.0205
684 1 1 4.04253 22.4408 35.0768 32.2234
685 1 1 4.04253 49.2053 39.909 34.0244
686 1 1 4.04253 24.756 41.006 32.2756
687 1 1 4.04253 28.7492 41.3676 31.2539
688 1 1 4.04253 38.0098 29.1311 46.2756
689 1 1 4.04253 41.8402 42.4125 42.1989
690 1 1 4.04253 46.9004 32.8045 39.7132
691 1 1 4.04253 38.7329 41.2848 48.4136
692 1 1 4.04253 46.5323 6.1335 51.4993
693 1 1 4.04253 36.9492 43.7812 1.37449
694 1 1 4.04253 35.3034 37.1652 5.78916
695 1 1 4.04253 39.0072 36.9534 21.6651
696 1 1 4.04253 36.8552 48.5722 22.0249
697 1 1 4.04253 34.4779 33.3649 9.31408
698 1 1 4.04253 40.9239 51.2872 33.7753
699 1 1 4.04253 42.8497 39.4614 24.6093
700 1 1 4.04253 41.3977 45.755 33.75
701 1 1 4.04253 27.5389 51.3987 32.0155
702 1 1 4.04253 43.1767 49.8561 30.08
703 1 1 4.04253 29.3483 50.4052 41.1443
704 1 1 4.04253 46.1429 42.0276 44.39
705 1 1 4.04253 38.9887 48.0873 48.3106
706 1 1 4.04253 28.4613 51.9879 52.0875
707 1 1 4.04253 33.1283 47.2806 12.2587
708 1 1 4.04253 23.1378 51.3741 14.5143
709 1 1 4.04253 38.4761 40.8042 17.7553
710 1 1 4.04253 37.3287 1.2038 3.26572
711 1 1 4.04253 36.1158 1.1915 21.512
712 1 1 4.04253 29.4244 43.3811 14.9897
713 1 1 4.04253 32.2272 51.1713 24.9887
714 1 1 4.04253 47.1889 46.8707 32.6312
715 1 1 4.04253 39.7283 4.3922 36.6456
716 1 1 4.04253 8.7232 48.5238 26.5043
717 1 1 4.04253 30.3012 3.4882 47.0853
718 1 1 4.04253 40.3584 47.7547 38.2995
719 1 1 4.04253 46.3484 38.8762 39.6825
720 1 1 4.04253 40.9242 1.5923 6.8294
721 1 1 4.04253 44.5994 14.7305 12.7926
722 1 1 4.04253 48.7963 4.19553 4.40113
723 1 1 4.04253 36.6603 11.8877 6.47751
724 1 1 4.04253 36.5051 8.45295 51.2096
725 1 1 4.04253 39.7264 8.97165 18.6815
726 1 1 4.04253 40.7017 51.4465 18.3345
727 1 1 4.04253 37.7322 50.0838 29.0389
728 1 1 4.04253 48.7134 6.69073 46.273
729 1 1 4.04253 35.084 50.8988 38.9091
730 1 1 4.04253 47.6257 8.52745 40.283
731 1 1 4.04253 2.2016 1.25662 33.5134
732 1 1 4.04253 51.1509 1.29969 38.3431
733 1 1 4.04253 30.2712 2.66685 39.3546
734 1 1 4.04253 35.7974 5.96799 33.5558
735 1 1 4.04253 38.638 12.8009 47.9057
736 1 1 4.04253 44.5746 14.3815 50.1736
737 1 1 4.04253 42.7616 20.216 1.7346
738 1 1 4.04253 44.9184 7.18788 5.69171
739 1 1 4.04253 36.1812 13.142 19.7081
740 1 1 4.04253 44.6661 6.16075 26.92
741 1 1 4.04253 1.6306 1.80745 23.148
742 1 1 4.04253 36.2038 6.5959 23.8882
743 1 1 4.04253 46.2745 20.8615 29.9381
744 1 1 4.04253 31.1158 46.8007 18.7816
745 1 1 4.04253 36.9903 19.3931 25.6837
746 1 1 4.04253 2.7458 4.80673 27.709
747 1 1 4.04253 37.056 8.49795 45.1076
748 1 1 4.04253 0.583801 8.22179 40.58
749 1 1 4.04253 42.1631 9.32995 0.061201
750 1 1 4.04253 49.6088 16.9017 40.5357
751 1 1 4.04253 50.773 15.5449 46.4586
752 1 1 4.04253 30.8991 16.8591 42.0294
753 1 1 4.04253 51.4446 20.5845 12.2157
754 1 1 4.04253 40.1644 32.3866 13.2103